ITEM: TIMESTEP
0
ITEM: NUMBER OF ATOMS
9
ITEM: BOX BOUNDS pp pp pp
-1.0000000000000000e+01 1.0000000000000000e+01
-5.0000000000000000e+00 5.0000000000000000e+00
-1.5000000000000000e+01 1.5000000000000000e+01
ITEM: ATOMS id type mol x y z
1 1 1 0 0 -10
2 1 1 0 1 -10
3 1 1 0 2 -10
4 1 2 0 0 0
5 1 2 0 1 0
6 1 3 0 0 10
7 1 3 0 1 10
8 1 3 0 2 10
9 1 3 0 3 10
ITEM: TIMESTEP
1
ITEM: NUMBER OF ATOMS
9
ITEM: BOX BOUNDS pp pp pp
-1.0000000000000000e+01 1.0000000000000000e+01
-5.0000000000000000e+00 5.0000000000000000e+00
-1.5000000000000000e+01 1.5000000000000000e+01
ITEM: ATOMS id type mol x y z
1 1 1 0 2 -10
2 1 1 0 3 -10
3 1 1 0 4 -10
4 1 2 0 -2 0
5 1 2 0 -1 0
6 1 3 0 2 10
7 1 3 0 3 10
8 1 3 0 4 10
9 1 3 0 5 10
ITEM: TIMESTEP
2
ITEM: NUMBER OF ATOMS
9
ITEM: BOX BOUNDS pp pp pp
-1.0000000000000000e+01 1.0000000000000000e+01
-5.0000000000000000e+00 5.0000000000000000e+00
-1.5000000000000000e+01 1.5000000000000000e+01
ITEM: ATOMS id type mol x y z
1 1 1 0 4 -10
2 1 1 0 5 -10
3 1 1 0 -4 -10
4 1 2 0 -4 0
5 1 2 0 -3 0
6 1 3 0 4 10
7 1 3 0 5 10
8 1 3 0 -4 10
9 1 3 0 -3 10
ITEM: TIMESTEP
3
ITEM: NUMBER OF ATOMS
9
ITEM: BOX BOUNDS pp pp pp
-1.0000000000000000e+01 1.0000000000000000e+01
-5.0000000000000000e+00 5.0000000000000000e+00
-1.5000000000000000e+01 1.5000000000000000e+01
ITEM: ATOMS id type mol x y z
1 1 1 0 -4 -10
2 1 1 0 -3 -10
3 1 1 0 -2 -10
4 1 2 0 4 0
5 1 2 0 -5 0
6 1 3 0 -4 10
7 1 3 0 -3 10
8 1 3 0 -2 10
9 1 3 0 -1 10
ITEM: TIMESTEP
4
ITEM: NUMBER OF ATOMS
9
ITEM: BOX BOUNDS pp pp pp
-1.0000000000000000e+01 1.0000000000000000e+01
-5.0000000000000000e+00 5.0000000000000000e+00
-1.5000000000000000e+01 1.5000000000000000e+01
ITEM: ATOMS id type mol x y z
1 1 1 0 -2 -10
2 1 1 0 -1 -10
3 1 1 0 0 -10
4 1 2 0 2 0
5 1 2 0 3 0
6 1 3 0 -2 10
7 1 3 0 -1 10
8 1 3 0 0 10
9 1 3 0 1 10
ITEM: TIMESTEP
5
ITEM: NUMBER OF ATOMS
9
ITEM: BOX BOUNDS pp pp pp
-1.0000000000000000e+01 1.0000000000000000e+01
-5.0000000000000000e+00 5.0000000000000000e+00
-1.5000000000000000e+01 1.5000000000000000e+01
ITEM: ATOMS id type mol x y z
1 1 1 0 0 -10
2 1 1 0 1 -10
3 1 1 0 2 -10
4 1 2 0 0 0
5 1 2 0 1 0
6 1 3 0 0 10
7 1 3 0 1 10
8 1 3 0 2 10
9 1 3 0 3 10
ITEM: TIMESTEP
6
ITEM: NUMBER OF ATOMS
9
ITEM: BOX BOUNDS pp pp pp
-1.0000000000000000e+01 1.0000000000000000e+01
-5.0000000000000000e+00 5.0000000000000000e+00
-1.5000000000000000e+01 1.5000000000000000e+01
ITEM: ATOMS id type mol x y z
1 1 1 4 0 13
2 1 1 4 1 13
3 1 1 4 2 13
4 1 2 -4 0 7
5 1 2 -4 1 7
6 1 3 4 0 3
7 1 3 4 1 3
8 1 3 4 2 3
9 1 3 4 3 3
ITEM: TIMESTEP
7
ITEM: NUMBER OF ATOMS
9
ITEM: BOX BOUNDS pp pp pp
-1.0000000000000000e+01 1.0000000000000000e+01
-5.0000000000000000e+00 5.0000000000000000e+00
-1.5000000000000000e+01 1.5000000000000000e+01
ITEM: ATOMS id type mol x y z
1 1 1 8 0 6
2 1 1 8 1 6
3 1 1 8 2 6
4 1 2 -8 0 14
5 1 2 -8 1 14
6 1 3 8 0 -4
7 1 3 8 1 -4
8 1 3 8 2 -4
9 1 3 8 3 -4
ITEM: TIMESTEP
8
ITEM: NUMBER OF ATOMS
9
ITEM: BOX BOUNDS pp pp pp
-1.0000000000000000e+01 1.0000000000000000e+01
-5.0000000000000000e+00 5.0000000000000000e+00
-1.5000000000000000e+01 1.5000000000000000e+01
ITEM: ATOMS id type mol x y z
1 1 1 -8 0 -1
2 1 1 -8 1 -1
3 1 1 -8 2 -1
4 1 2 8 0 -9
5 1 2 8 1 -9
6 1 3 -8 0 -11
7 1 3 -8 1 -11
8 1 3 -8 2 -11
9 1 3 -8 3 -11
ITEM: TIMESTEP
9
ITEM: NUMBER OF ATOMS
9
ITEM: BOX BOUNDS pp pp pp
-1.0000000000000000e+01 1.0000000000000000e+01
-5.0000000000000000e+00 5.0000000000000000e+00
-1.5000000000000000e+01 1.5000000000000000e+01
ITEM: ATOMS id type mol x y z
1 1 1 -4 0 -8
2 1 1 -4 1 -8
3 1 1 -4 2 -8
4 1 2 4 0 -2
5 1 2 4 1 -2
6 1 3 -4 0 12
7 1 3 -4 1 12
8 1 3 -4 2 12
9 1 3 -4 3 12
ITEM: TIMESTEP
10
ITEM: NUMBER OF ATOMS
9
ITEM: BOX BOUNDS pp pp pp
-1.0000000000000000e+01 1.0000000000000000e+01
-5.0000000000000000e+00 5.0000000000000000e+00
-1.5000000000000000e+01 1.5000000000000000e+01
ITEM: ATOMS id type mol x y z
1 1 1 0 0 -15
2 1 1 0 1 -15
3 1 1 0 2 -15
4 1 2 0 0 5
5 1 2 0 1 5
6 1 3 0 0 5
7 1 3 0 1 5
8 1 3 0 2 5
9 1 3 0 3 5
ITEM: TIMESTEP
11
ITEM: NUMBER OF ATOMS
9
ITEM: BOX BOUNDS pp pp pp
-1.0000000000000000e+01 1.0000000000000000e+01
-5.0000000000000000e+00 5.0000000000000000e+00
-1.5000000000000000e+01 1.5000000000000000e+01
ITEM: ATOMS id type mol x y z
1 1 1 0 0 8
2 1 1 0 1 8
3 1 1 0 2 8
4 1 2 0 0 12
5 1 2 0 1 12
6 1 3 0 0 12
7 1 3 0 1 -2
8 1 3 0 2 -2
9 1 3 0 3 -2
